LAMMPS data file via write_data, version 17 Nov 2016, timestep = 200000000

512 atoms
1 atom types

0.0000000000000000e+00 4.2218699999999998e+01 xlo xhi
0.0000000000000000e+00 4.2218699999999998e+01 ylo yhi
0.0000000000000000e+00 4.2218699999999998e+01 zlo zhi

Masses

1 39.948

Atoms # atomic

1 1 5.4228901838900230e+00 3.8443685881269246e+01 2.2534656574662364e+01 -243 -149 112
2 1 7.8619682581790800e+00 2.0543645211075625e+00 8.8428048011411438e+00 36 102 220
3 1 1.6629804275435191e+01 6.1306574378178791e+00 1.4548337145500600e+01 119 -48 -19
4 1 1.1335219629936283e+01 2.2542668916904564e+01 1.7996092041106568e+01 85 163 -241
5 1 1.7583393321136953e+01 1.4225432511480914e+01 7.1935168623400800e+00 -115 -85 -98
6 1 8.5542437048993349e+00 2.1857858346369894e+00 2.2329558582236317e+01 340 -121 -266
7 1 2.3349697895629163e+01 7.9207955410218407e+00 1.0308500210862663e+01 -191 24 218
8 1 3.5010420409561704e+01 1.1992773541632257e+01 9.7386327890465374e+00 -73 176 139
9 1 4.0957893737351903e+01 9.5946695669921844e+00 2.4215284641634792e+01 128 -52 278
10 1 4.0583935616088155e+01 1.8119223667406462e+01 2.3039707867186735e+01 -438 383 -91
11 1 1.9612478181548106e+01 2.0167696232321081e+01 8.0678949710747290e+00 126 460 -349
12 1 3.9648211019809287e+00 2.6113169307223778e+01 4.0892013146699231e+00 309 197 189
13 1 3.5305034719652397e+01 4.0719210747831362e+01 2.4258744868642903e+01 66 10 164
14 1 7.7691416742630910e+00 2.9471242440760829e+01 4.0666754171957953e+00 174 60 118
15 1 2.6780477729615448e+01 2.9129625521686933e+01 3.8100230872913819e+01 51 -99 -51
16 1 2.7104722289190775e+01 1.1565924104703532e+01 2.7292767659803534e+01 202 -40 236
17 1 3.0793833772130741e+00 3.8514067594749584e+01 2.5175395019287034e+01 219 -337 59
18 1 2.7081488824971640e+01 8.8250836702239859e+00 2.9726754465759349e+01 -9 227 -96
19 1 3.1314386705596529e+01 2.2143912858599446e+01 5.3643368982092854e+00 -485 217 203
20 1 2.1480563557976652e+01 7.7687174950195672e+00 2.6805906117869316e+01 81 365 43
21 1 2.8008960825439722e+01 3.7778485391762800e+01 2.3550380518014013e+01 395 27 -169
22 1 5.3689144980030923e+00 3.4840145438454861e+01 2.2933837158328657e+01 -33 -306 -42
23 1 2.3145301209545890e-01 2.5937830878854676e+01 4.0371220291941462e+01 250 -131 -44
24 1 1.0167394307048571e+01 2.4127339975772053e+01 1.3245709853641419e+01 -2 -10 108
25 1 1.4815349523022590e+01 1.7469780251286178e+01 9.8055975684546084e+00 -10 -65 167
26 1 3.7690481103653269e+01 4.1910169791412748e+01 1.4144976591529517e+01 39 58 190
27 1 4.0799073889827838e+01 3.0861543353035710e+01 2.0886516833949493e+01 -23 99 -80
28 1 3.7931227161961765e+01 2.4168148908682383e+01 7.3091983399319060e+00 -32 216 20
29 1 6.5232088439494218e-01 2.0422994428566817e+01 4.0842351241818918e+01 252 -167 -18
30 1 1.7607324365146866e+01 4.1767267355586224e+00 3.4323215399185649e+01 -433 -113 66
31 1 2.2877674330279664e+01 9.1705125880014737e+00 4.2603103419163091e-01 181 -197 251
32 1 3.9168914862818752e+01 1.3034720237978027e+01 3.2111052308698078e+01 -171 346 38
33 1 2.0439474105581294e+01 2.0337706002112586e+00 3.3195957125480895e+01 234 156 -272
34 1 6.4932698356847247e+00 1.3972126494109990e+01 1.8962832424888667e+01 121 5 -17
35 1 3.2468308165975614e+01 4.9961170753963904e+00 1.8506486735943447e+01 210 -378 304
36 1 1.9883103644742636e+01 2.4453192217695868e+01 2.2057694676000605e+01 310 63 92
37 1 2.3159218695829338e+01 3.4878417946770561e+01 1.7591145769589957e+01 423 -122 74
38 1 4.0536006666960446e+01 3.0115589299967620e+01 1.4599905755098350e+00 -45 239 28
39 1 1.6065982077722833e+01 3.1033997375159032e+01 9.9222183362981227e+00 462 86 212
40 1 6.2986772889656235e+00 1.7883920541778579e+01 1.5812827285704776e+01 220 -70 37
41 1 1.7153245280489109e+00 2.7275305627709081e+01 1.7271113935310883e+01 35 -80 118
42 1 2.3366178533307476e+01 1.1731526325048524e+01 2.2049161503320363e+01 -59 -512 -124
43 1 7.4796755734992848e+00 2.4350977484129896e+01 2.0790018271264945e+01 -95 70 16
44 1 2.9344706902436792e+00 1.8951870086722483e+01 7.0122603340470147e-01 37 160 351
45 1 2.2617401695154644e+01 1.0475488944938284e+01 1.5932142092140372e+01 -34 139 6
46 1 3.4375621910801115e+01 3.7441912907769066e+01 3.0982405920130258e+01 -121 173 272
47 1 2.9733824793869339e+01 9.5496775378574856e+00 1.9977860271707012e+01 -12 -106 47
48 1 2.8784291806045459e+01 4.1672075794547389e+01 2.3530471459705691e+01 -61 25 -276
49 1 1.6137849466762464e+01 3.5805667202803740e+01 3.2898468130430718e+00 137 198 168
50 1 3.0740764208728088e+01 3.4163467417708361e+01 4.1207544756949211e+01 -239 0 -40
51 1 5.0568937880129035e+00 3.6202783714812298e+01 3.4319277184305266e+00 128 -169 -85
52 1 9.1900353661994600e+00 1.5314553793825560e+01 1.4100594981208236e+01 124 335 -144
53 1 3.0944949353084816e+01 2.6656779576462450e+00 3.2155537551886013e+01 -195 30 18
54 1 3.5424558966013372e+01 2.7615889393610239e+01 2.1123234236367946e+01 15 281 123
55 1 1.9119122527175108e+01 2.2338117281849954e+01 2.8565526114940891e+01 -192 -124 -13
56 1 3.3152862799629105e+01 2.4106527164760863e+01 1.2267559068017617e+01 -144 -57 -105
57 1 1.6236579111982419e+01 3.1338201306230644e+01 3.1046249588277370e+00 -65 75 -83
58 1 9.9555397835205586e+00 2.9234324463231626e+01 1.0965342272701740e+01 13 192 16
59 1 2.1042410819062003e+01 3.0778410169848760e+00 2.1134525283114872e+01 81 -55 106
60 1 6.3855201205551637e+00 1.2306352752843253e+00 2.4630768092318966e+01 -10 248 168
61 1 3.6295514265739939e+01 4.1661482087584048e+01 1.0451912017566965e+01 90 2 78
62 1 3.8594933056924567e+01 4.0876438815989047e+01 2.7377716856329631e+01 288 208 4
63 1 1.0412279928281867e+01 9.7545932000789861e+00 7.4019473543672456e+00 129 -143 27
64 1 4.0985252742869271e+01 3.5801603864253472e+01 4.0353847931839603e+01 -161 -113 -41
65 1 2.5362078591658705e+01 2.5456607162559064e+00 4.2556554229956465e+00 185 186 -117
66 1 3.6550777178510705e+00 3.4125500044564724e+01 1.0712110962891019e+00 316 133 198
67 1 2.3552605213929598e-01 1.9882559671989153e+01 3.4370195772638709e+01 -104 -189 169
68 1 1.3772331345305428e+01 3.1892312734813146e+01 1.3001674907994165e+01 -204 -113 -55
69 1 3.2457175384532121e+01 3.0892595948288857e+01 1.5518833962671861e+01 -245 180 -198
70 1 7.7164000378640738e+00 3.6042707604064475e+01 3.9179262664828038e+01 468 197 -40
71 1 4.0602672570486874e+01 3.9688040901411902e+01 1.8442350543081311e+01 284 -170 -20
72 1 2.4193453898227670e+01 3.6697858467736317e+01 2.2100251648324893e+01 -20 23 76
73 1 3.9921118304443746e+00 2.5503308685230508e+01 2.3697446654794728e+01 -94 -256 10
74 1 2.1044062521619291e+00 2.8411796113808691e+01 1.5804764300645389e+00 72 26 71
75 1 1.3711594693158677e+01 9.0920799604471885e+00 3.7978769848365843e+01 245 -65 -4
76 1 4.0781097757519703e+01 1.6882404646415409e+01 4.9526821892659019e+00 64 317 108
77 1 3.8590359051901324e+01 1.2694146069178041e+01 1.4008965539599828e+01 85 -106 -202
78 1 3.0803742654107314e+01 1.2264127519806685e+01 4.7943148839936649e+00 205 -87 -230
79 1 4.2110820074022158e+01 3.9502326038120714e+01 4.1599598031809833e+01 -88 19 174
80 1 1.8296772240944925e+00 1.0822014442241464e+01 2.2297689304974433e+01 16 108 358
81 1 1.0365212630523402e+00 1.8922024145883800e+01 3.0151562540978365e+01 169 -88 30
82 1 1.5249410954966624e+01 4.4273018134322957e+00 1.0920363986608969e+01 -47 -37 -95
83 1 6.8011880110640872e+00 1.1886072198302999e+01 3.7915012951586277e+01 -1 -86 -94
84 1 3.0117416816462455e+01 7.4886793400422897e+00 3.3864436850985200e+01 332 158 -68
85 1 3.1095502228336596e+01 9.7571782102843123e+00 1.6895116842313310e+01 -123 -166 437
86 1 3.7708756408614661e+01 3.2587949194720234e+00 1.5296256275396653e+01 236 119 83
87 1 1.3840148128743156e+01 3.5731567245203848e+01 3.2719933425480775e+01 96 -82 119
88 1 4.0691695572289589e+01 6.3334895360676768e-01 3.2251761682847054e+01 -126 88 -93
89 1 3.5929492894770391e+01 3.3171677512719619e+01 2.6156318106654066e+01 46 -178 -289
90 1 9.7322540946488640e+00 8.0267972004638555e+00 4.0863716844513583e+01 -185 -27 -44
91 1 3.1189418675370675e+00 2.2123745039087929e+01 3.0255693368518656e+01 83 -136 -202
92 1 3.8958734658362097e+01 3.1448472582642452e+01 1.2392319996822181e+01 -154 201 -95
93 1 4.0219402981879831e+01 3.8264175490922170e+01 6.1822051020789974e+00 -118 53 -108
94 1 3.7559912925194908e+01 3.0596222900077453e+01 4.0074293114213070e+01 -146 307 229
95 1 2.0420083346371576e+00 9.7845141894349208e+00 3.9969991829956371e+01 -5 -90 -157
96 1 1.5956718479787414e+01 3.4023440049490326e+01 2.6642199121990082e+01 12 153 186
97 1 7.6183471936023048e+00 3.5315137304357322e+01 7.1242460202132518e-01 -282 -16 58
98 1 3.4965399955161402e+01 3.8591155882182662e+01 3.6337508331815691e+01 193 -82 -260
99 1 4.0796644731757439e+01 2.2998390784502884e-01 2.0400153479909598e+01 -228 -46 -102
100 1 2.8274589974301197e+01 2.1910054747648360e+00 2.9432924508896754e+01 -278 -434 20
101 1 8.5439291013034104e+00 2.7372670126339461e+01 3.7168311928492159e+01 116 25 250
102 1 3.0292266707843130e+01 1.4040004163917885e+01 1.9899318204851216e+01 164 -86 -43
103 1 1.8240075733138472e+01 2.7176195845972302e+01 1.4383811500672648e+01 223 213 160
104 1 1.2359135207569524e+01 1.6324992832025121e+01 3.1700777879939732e+01 326 -88 108
105 1 4.0530268446556626e+01 3.1480164605543937e+01 3.7255643457486634e+01 24 152 59
106 1 2.9788749513464175e+01 1.3204184261804926e+01 3.8458271315719998e+01 -17 92 -231
107 1 1.6018386035614601e+01 7.8497566334263444e+00 3.3958879095357140e+01 81 40 93
108 1 4.0988768259311776e+01 1.7755537438169480e+01 8.7827504850039091e+00 -118 -47 354
109 1 3.5326043425491541e+01 3.7317856865004423e+01 1.0417185163376708e+01 -40 -92 -24
110 1 2.5426787215802431e+01 3.9988527732775260e+01 6.3700341399495306e+00 181 -48 140
111 1 3.1787087750196370e+01 4.7939055085613367e+00 2.5806014349648765e-01 174 159 183
112 1 9.7305275772930937e+00 1.4712729499650035e+00 3.0696908241513690e+01 -212 -134 218
113 1 1.6648492393154566e+01 2.1652853916976875e+00 1.9300449960037106e+01 225 151 55
114 1 1.8069357731754458e+01 2.9299662613795423e+01 2.7259372036145116e+01 -41 109 -20
115 1 7.7868714936128578e+00 3.8664795441910287e+00 1.7947367531954065e+01 -239 243 -18
116 1 2.4334026613608759e+00 2.9094721558473282e+01 2.8579875668538708e+01 -136 -230 -184
117 1 7.6282502962876482e+00 4.1903036795633327e+01 3.3505795397996806e+01 109 -97 208
118 1 4.1606309137215376e+01 3.3675619693671393e+01 6.4291751148904410e+00 305 -143 -51
119 1 1.4974349121301561e+01 2.4166599041419005e+01 2.4735637627116912e+01 -64 -64 89
120 1 3.2508465128380635e+01 2.1136840872248118e+01 1.4154270722450308e+01 -228 87 65
121 1 4.0655358498092092e+01 9.9111282704884633e+00 1.6261878209466413e+01 -330 170 103
122 1 1.4316348547542287e+01 2.2086589351568001e+01 7.5011924921348587e+00 -5 -141 -14
123 1 7.8107191630829975e+00 2.4868196324568295e+01 9.7155090389713923e+00 -201 278 183
124 1 1.2200119487720592e+01 7.7276639241412841e+00 1.9970010962432944e+01 -178 90 -360
125 1 1.9107827031931059e+00 6.0620072498579702e-02 2.6931223118420352e+01 49 -192 144
126 1 1.5175468181168978e+00 1.9601514823724756e+01 1.2711992475301656e+01 -250 8 146
127 1 4.1300892443797849e+01 2.4459381304052052e+01 1.2049240580944574e+01 256 47 312
128 1 3.0330434152048595e+00 4.4976724177813852e+00 3.4202677101767478e+01 -63 -113 -165
129 1 1.2185964539553440e+00 4.1184659072144420e+01 5.4093798659641879e+00 134 -87 -150
130 1 7.9790703214544854e+00 1.2105497661489277e+00 4.4357718525242884e+00 35 -100 -2
131 1 3.9332174558716410e+01 2.1898463322582476e+01 2.2995691245580201e+01 -4 -38 111
132 1 3.4919980778163143e+01 1.9621909942240265e+00 3.9148547872736077e+00 247 38 -231
133 1 3.2076111798786080e+01 3.3358961287617809e+01 2.6003410109601251e+01 -71 133 -203
134 1 1.3049339309480954e+01 1.4535602092648929e+01 1.2257059376742676e+01 287 9 -98
135 1 3.5529669712686568e-01 1.6652226531964856e-01 1.6449132371827094e+01 -241 -92 -123
136 1 6.5459896553314465e+00 7.2926643512705249e+00 1.6260485056807212e+01 -322 -197 302
137 1 2.3185505314986269e+01 2.9859227977592134e+01 8.0413791716235017e-01 -122 -105 -198
138 1 3.0391161096432494e+01 1.1427421839396169e+01 2.8650678266747754e+01 38 35 42
139 1 1.1282584343807452e+01 1.9473828923806924e+01 3.7984918495165864e+01 174 -1 -2
140 1 1.9755378105193234e+01 2.7767380206323306e+01 6.8613508437793769e+00 -81 -55 -80
141 1 2.3182102948262912e+01 8.7541403767595694e-01 3.0366196480199118e+01 253 22 289
142 1 3.2023656932319433e+01 1.4917385338899184e+01 2.2914255029481154e+01 153 157 127
143 1 1.8035270176066312e+01 2.6184045737647846e+01 2.5507082264421559e+01 91 -28 -382
144 1 1.0375496030202228e+01 1.8943379571322744e+01 2.7271005001605378e+01 99 98 -69
145 1 3.3193923395103589e+01 2.8817884003019795e+01 2.9403006537722195e+01 -131 369 241
146 1 2.6334241287979719e+01 2.6228768641826107e+01 2.8910476176342428e+01 158 -413 11
147 1 3.2400279426993926e+01 1.3174769881381827e+01 1.6969870998195638e+01 -303 -147 221
148 1 1.1440239588258217e+01 4.0828360779285319e+01 4.1785228764673148e+00 -72 100 -10
149 1 4.8594311554729774e+00 1.2407679789265092e+01 2.8453547407296337e+01 -113 -3 28
150 1 2.8347384144490295e+01 9.4462636211601687e+00 7.6697184545649755e+00 226 -78 170
151 1 3.5120254512502123e+00 4.1652338123295003e+01 3.0431062790614710e+01 -60 -161 170
152 1 1.7812995530636950e+01 1.9870198787376548e+01 3.7926451079613841e+01 -157 -469 307
153 1 1.2860924041268365e+01 1.0843219129087924e+01 4.1961029791916630e+01 -43 -331 237
154 1 4.1054437877185691e+01 5.7403912927311502e+00 3.5995290781612439e+01 232 110 255
155 1 3.7144824939301081e+01 3.5791472241107719e+01 2.1250579047460722e+01 16 -422 -100
156 1 3.4697179006547003e+01 3.4243742911219158e+01 1.4207438651585749e+01 -2 328 60
157 1 3.7876583362496540e+01 1.4171115766929944e+01 4.8287612067932439e+00 11 -179 35
158 1 6.0292248701324536e-01 1.3537874632188547e+01 2.9421667901510038e+01 -137 180 176
159 1 2.9017137905003924e+01 2.9431118592737882e+01 2.1492260021695692e+01 -330 269 123
160 1 3.8212266757769598e+01 1.9928960155310609e+00 6.1214339227102510e+00 -141 76 129
161 1 1.5180173275287169e+01 3.3467472195831711e+01 5.8766776291447655e+00 122 36 197
162 1 1.5766522526081332e+01 3.4388205445738138e+00 1.6382753567456152e+01 -168 89 49
163 1 1.6288992821531174e+01 2.4184823559783155e+01 4.5779368911432696e+00 250 -106 -107
164 1 1.4455239798352819e+01 1.9636661461276340e+01 2.6979391709858280e+01 129 415 256
165 1 1.6130897049615761e+01 1.9460433129925363e+01 2.0184860212603626e+00 140 103 49
166 1 3.0087622910000402e+01 5.7611259522307128e+00 2.4079327638287385e+01 148 -46 198
167 1 2.7635131111952376e+01 3.7601153329479537e+01 1.1635327391566015e+01 169 -142 79
168 1 7.5888697220689183e+00 3.1361364722264415e+01 9.5300289970763927e+00 -29 -350 -278
169 1 8.7232599208842512e+00 6.6908805402462637e+00 2.0529187393158793e+01 -44 -27 157
170 1 2.3191583278499511e+01 2.1487281592160574e+01 3.3982652848541020e+00 312 192 -70
171 1 2.4916556547609076e-01 3.1121339201158772e+01 9.8746132195126588e+00 -295 210 -1
172 1 2.0904436382386063e+01 2.0391749709801324e+01 2.2612894322247865e+01 -217 -215 360
173 1 1.3715190913681788e+01 3.9036522759474586e+01 3.4857571800594656e+01 99 93 -236
174 1 4.6013273169247437e+00 3.5008107448180212e+01 1.9355547706808522e+01 348 -34 96
175 1 6.9482280439267434e+00 6.0319061339250233e+00 4.9437242986258179e-01 279 21 -123
176 1 2.5373411459658147e+01 8.5418193191314113e+00 2.6318161908380020e+01 -49 -310 69
177 1 3.9389104310713769e+01 2.1807373900979869e+01 3.0397047633242245e+01 -343 54 150
178 1 1.9036296109978203e+01 1.0233396533056688e+01 1.6740404603059456e+01 227 94 115
179 1 1.7847069390847565e+01 2.5961958736115696e+00 1.2883938571161455e+01 -118 -363 9
180 1 1.1005217212631937e+00 3.2479213553932148e+01 4.1394787182495229e+01 -47 16 15
181 1 4.1991438350428396e+01 7.0567216850334225e+00 2.1082770029233842e+01 285 361 -201
182 1 2.7912529971044673e+01 2.6176732764819132e+01 1.0996220585057710e+01 117 -201 76
183 1 1.6948520173709287e+01 1.3595922003925940e+01 1.7673418312739663e+01 331 101 54
184 1 2.5033768094680617e+00 3.4422039144395384e+00 2.1640876261563964e+01 273 -142 70
185 1 1.6905655948788976e+01 2.4157526604634093e+01 1.9714047539736761e+01 -226 -207 27
186 1 3.7485476380637735e+01 1.9949230150817602e+01 3.5143449852052013e+00 176 181 80
187 1 1.4326815871618249e+01 2.8285163272661826e+01 4.4370115230492191e+00 213 123 -83
188 1 2.6283136131000720e+01 4.6974482790280838e+00 2.4945104621787518e+01 -280 -110 -162
189 1 3.6904270228764190e+01 2.3758632439328348e+01 3.3730492168152189e+01 104 -215 -141
190 1 1.1941399004708673e+01 2.1046821782963551e+01 1.5984580473098449e+00 313 175 -229
191 1 3.9819276190881119e+01 1.8620402705873573e-01 4.2216095480528281e+01 99 -51 -71
192 1 2.6344981462773724e+01 9.4062873833699285e+00 3.2976723047504336e+01 -295 19 11
193 1 1.8721966670509186e+01 3.0605601911337967e+01 3.0717527672533386e+01 -228 -73 70
194 1 1.7038132884156127e+01 3.7188507295190547e+01 7.1664712097391456e+00 360 -108 -74
195 1 1.2344737230793548e+00 3.6503567143827460e+01 7.9941951194424883e+00 -89 -234 154
196 1 8.7845328240907392e+00 1.5255774429702244e+01 1.0490856561424984e+01 379 -224 96
197 1 1.6929830361138190e+01 2.1583872547893620e+01 2.3238404670962105e+01 -257 114 -67
198 1 4.7100677265583926e+00 2.6126012245780384e+01 3.3499760815993689e+01 68 10 91
199 1 3.6366245052743160e+01 4.0278770682297541e+01 3.2355112922112525e+01 -33 149 31
200 1 7.6148218583007568e+00 2.0400622743432621e+01 3.9992467309012412e+01 -401 266 -11
201 1 1.2480699129878809e+01 2.7877142832058340e+01 1.4616306348032298e+01 -50 -88 8
202 1 1.5932982080763926e+01 2.4292522864232073e+00 2.7553131326505724e+01 -91 152 -296
203 1 3.4659990461755747e+01 1.1856218128577707e+00 3.3398682968224264e+01 52 -183 491
204 1 2.5172376550829618e+01 3.5719323756959334e+01 3.9716680141635443e+01 -124 -15 14
205 1 1.0682864789238232e+01 4.3487433897680345e+00 3.2132344984450356e+01 -89 -18 -138
206 1 1.1524456521682081e+01 3.1343412501522714e+01 5.6813198517887615e+00 -89 332 34
207 1 4.0014727187562784e+01 1.4102758109498813e+01 2.2057015053336126e+01 48 38 31
208 1 7.0382971130464904e+00 1.2777474695522336e+01 1.2434475251926616e+01 -6 90 205
209 1 9.6376308345339261e+00 3.0670879799700380e+01 3.8447620141568166e+01 -158 267 -36
210 1 1.7245270695845931e+00 3.0498943172811803e+01 5.9849594348774824e+00 36 190 -56
211 1 4.1459926019485593e+01 2.5987616047095383e+01 1.5049287562970979e+00 84 31 -195
212 1 2.9293358715569067e+01 3.2515594425064457e+01 2.3774973781890225e+01 -241 27 -48
213 1 1.8825376059039346e+01 2.7219492539983065e+01 4.2007393419810406e+01 244 140 -98
214 1 4.1152547956784204e+01 4.1713862994601598e+00 2.5536028501116640e+01 -116 73 110
215 1 2.3139092867680986e+01 4.5841668572125611e+00 3.1708896863753406e+01 -120 -76 140
216 1 2.4691890332734939e+01 2.4318417617371733e+00 1.8355979600477646e+01 62 54 66
217 1 3.7409833050310731e+01 6.2024858132613812e+00 2.3247847043435868e+01 144 -6 -36
218 1 3.7548546208339353e+01 6.7037728647717687e+00 3.8626285988308339e+01 -254 -52 -81
219 1 2.8113336902193225e+01 2.2689255445960555e+01 1.5778568630648071e+01 7 41 167
220 1 2.1687115064460163e+00 1.3112937728046766e+01 2.5991345387853524e+01 -281 -158 -151
221 1 2.7334622052086416e+01 3.5822746123343450e+01 1.9414001222737014e+01 100 44 207
222 1 9.5153689373113597e+00 3.4429525315166984e+01 9.6371348164232344e+00 -19 -105 265
223 1 5.3424571718771330e-01 2.1911620522288739e+01 9.5450683337853679e+00 52 186 39
224 1 1.8604673945346160e+01 3.5157010241965502e+01 1.1565643687404890e+01 386 -10 86
225 1 2.1820845584915602e+01 3.1230669418032853e+01 2.8282866230946308e+01 -30 128 -412
226 1 3.6263970844775358e+01 3.7967890059958371e+01 1.6986053278964135e+01 169 -74 -12
227 1 1.7212097876029635e+01 2.0696402023613217e+01 1.0988300264037575e+01 -236 2 -87
228 1 2.5812119462226804e+01 7.6447058399942645e+00 2.1729391778447789e+00 -226 218 -121
229 1 3.9162275303613072e+01 3.9263197985788985e+01 2.2198898601987661e+01 -83 46 46
230 1 2.7884228537668161e+01 3.3195638674198385e+01 3.3264065315432191e+01 -52 -294 9
231 1 1.3830374434330379e+01 1.7131429009684265e+01 1.8417252942617711e+01 66 -82 -26
232 1 3.2755848496599597e+01 2.1779893310538831e+00 2.3573740391326613e+01 -167 296 -114
233 1 2.0364301930294154e+01 7.3879298282743209e+00 7.6866786010821455e+00 -137 8 67
234 1 7.5759470855880719e+00 2.3410761394914903e+01 5.4038003308718441e+00 114 168 -352
235 1 3.8910493279884108e+01 2.7323440243786720e+01 3.0757077538240011e+01 -196 -307 10
236 1 2.5962091222868320e+01 3.3437133653434359e-01 9.5300096810494210e+00 176 142 -328
237 1 2.1667841581101396e+01 8.1427638278776246e+00 1.3654716079049363e+01 -273 -27 28
238 1 2.6064208515773912e+00 3.8941845644008858e+01 1.3081839107132017e+01 116 -18 1
239 1 1.6846311881415833e+01 3.8446725527585087e+01 1.1380824573786686e+01 -134 293 212
240 1 3.0390761840432901e+01 2.2035069314909221e+00 4.0024751247108497e+01 -70 101 1
241 1 7.5954233932854942e+00 3.4779924707391437e+01 3.5433499055167957e+01 160 -291 -203
242 1 3.9616283376273863e+01 3.6295631865110586e+01 1.6699617540966460e+00 264 463 14
243 1 1.1279221564603667e+01 3.7395749526088622e+01 2.5268875117602558e+01 69 -124 -140
244 1 1.5368707486799059e+01 1.6782200943693660e+01 2.4875854298643056e+01 -252 0 71
245 1 2.8845375988911744e+01 3.0511663963368527e+01 4.1863507856378391e+01 -503 22 -174
246 1 4.5574779245611525e+00 1.2868680993565137e+01 3.4934181968198658e+01 135 -32 66
247 1 3.5623359825743755e+01 2.5879076408977983e+01 2.6034188556886889e+01 -229 -143 52
248 1 1.9931095050014179e+01 3.3012522638436650e+00 3.9896752634427671e+01 -22 132 1
249 1 3.2710137260523418e+01 6.8097341184202598e-01 1.1594362739707488e+01 43 -134 -277
250 1 5.2902286519963102e+00 2.8490802099976825e+01 6.3736524607367464e+00 45 144 -3
251 1 2.2472185691752696e+01 4.3377822217407713e+00 6.2702949312194498e+00 -265 371 21
252 1 2.2841977930352105e+01 1.9607344123281607e+01 3.9134486201196708e+01 0 137 73
253 1 3.0740697787541080e+01 3.8004934576448520e+01 2.8332536655317206e+01 39 -67 97
254 1 3.6682702555329385e+01 4.1950481966511632e+01 1.7529327409999844e+01 29 503 11
255 1 1.9526540703939222e+01 2.5666678374899774e+01 3.4206705214249503e+01 -100 126 456
256 1 6.4511840147632764e+00 4.2751976341973137e+00 5.7062214918540484e+00 100 -40 -197
257 1 3.4677332682672770e+01 3.4728606718614344e+01 3.4954985266366982e+01 133 -165 131
258 1 3.7493109660142174e+01 3.0763313911345609e+01 3.0984153382978437e+01 304 -46 -34
259 1 2.5905110748327047e+01 5.3731531041245653e+00 3.7161070823089716e+01 148 -106 245
260 1 1.0747399992965093e+01 2.3835003336180531e+01 3.6205613837730930e+01 -96 52 35
261 1 1.4522097555394693e+00 1.5450879187172124e+01 2.2135514671053166e+01 12 340 -350
262 1 1.3059807359375968e+01 2.1791837832293083e+01 1.4864575978475127e+01 -82 202 220
263 1 2.0742632794460900e+00 1.1928232987070992e+01 1.8962144985856906e+01 -92 -240 -55
264 1 3.9400889379302711e+01 1.5058176452809231e+01 3.6433643599642693e+01 -117 91 187
265 1 3.8672537935356189e+01 4.0216775416135846e+01 3.1984532230596230e+00 93 151 -94
266 1 1.9225354351285013e+00 3.6944725897668704e+01 2.9407243106253617e+01 -1 41 -70
267 1 7.1568022964911897e+00 9.0723025848147820e+00 3.4383612489067062e+01 159 31 -220
268 1 2.1986802497272382e+01 2.6070009363955290e+01 1.1100882583575514e+01 -210 12 -71
269 1 2.9327219343516173e+01 4.0716823672231349e+01 1.3607967148359272e+01 -140 138 -120
270 1 1.4499056822634865e+01 9.1332162253945910e+00 1.6572810816781345e+01 123 234 104
271 1 3.8640159768124612e+01 8.8517726715882699e+00 2.1100002176435989e+01 281 -4 290
272 1 3.5062296925084603e+01 1.7561143360436620e+01 9.2077312887343297e+00 -231 283 -111
273 1 3.1721082805038321e+01 1.4445568187495033e+01 3.1012869258609225e+01 119 128 80
274 1 3.1838062045676423e+01 3.4716274789234298e+01 2.2374320297973430e+01 -192 243 -294
275 1 2.6498248558210644e+01 3.1862853603218500e+01 1.7221238409217477e+01 123 200 7
276 1 3.8447219797405701e+01 3.3761409639902759e+01 5.3444138785320092e+00 337 -47 -130
277 1 3.2019531501101007e+01 8.9243827095911907e+00 3.0752022053653675e+01 -94 159 56
278 1 2.8116991139221074e+01 4.0125348115530038e+01 3.1449650385737481e+01 -50 36 15
279 1 5.5591207372678451e+00 2.8592896979400994e+01 2.6907690319041830e+01 -380 308 -75
280 1 1.0786359631353214e+01 1.5264560776474735e+01 2.8551898382315734e+01 -38 -151 246
281 1 2.3605894466598155e+01 2.4663790476943664e+01 2.3565050925906398e+01 318 138 212
282 1 1.4936575258987874e+01 1.8561066261211028e+01 3.9585350273153303e+01 106 94 266
283 1 3.4030905320909149e+01 4.0064079234387016e+01 1.9364809526937737e+01 50 116 25
284 1 3.8534782130835517e+01 1.0828348037569526e+01 3.8693472347460435e+01 -107 -57 -14
285 1 9.0166780514916178e-01 1.2989894362782517e+01 5.4614507517093980e+00 -127 194 259
286 1 1.4055409682170685e+01 1.2475504496027002e+01 6.4935812104285491e+00 -30 -185 44
287 1 1.7585598988816848e+01 3.6163643412965193e+01 4.1130551551418925e+01 -180 242 -255
288 1 2.0498653189479718e+01 1.4279796761623556e+01 4.0745757196410835e+01 -307 -13 192
289 1 1.0171610921431096e+01 1.4567165114889399e+01 3.4961757448819355e+01 -165 208 175
290 1 2.0237759029225413e+00 3.4026868453825266e+01 3.1355188319673683e+01 -36 -265 102
291 1 2.5349662473064434e+01 2.6924161856587190e+01 4.2093789577611602e+01 -106 215 159
292 1 3.1657048849205967e+01 2.5613299474263275e+01 3.8161975299716637e+01 -185 -129 -55
293 1 2.8943160688241075e+01 2.3477851326972150e+01 2.8741706144647594e+01 -58 22 19
294 1 1.9612563700647513e+01 1.7246057325243594e+01 1.9298075698213353e+01 193 319 -85
295 1 3.0210280306766455e+00 2.8183985591939496e+01 4.0397282855437439e+01 212 -67 -27
296 1 3.5059505154958352e+01 2.5991945066092242e+01 3.0046271605409419e+01 -280 -89 -58
297 1 1.6187198063976165e+01 1.6088647596725295e+01 1.4137416175156790e+01 -173 2 238
298 1 4.2024129349913657e+01 3.9209094186315232e+00 1.9111369169209325e+01 405 -122 -32
299 1 2.6380537119669555e+01 2.9915798891191798e+01 2.8739732552435058e+01 -40 49 -163
300 1 2.4709717524285356e+01 3.3790695699624791e+01 2.9451778178707617e+01 144 58 -79
301 1 2.2100189614130814e+00 3.9556600760119515e+01 9.0540162037164187e+00 313 343 -383
302 1 3.9043902748728691e+01 1.0895299734837630e+01 2.8101752163470003e+01 228 -106 101
303 1 3.3595212408014312e+01 7.1659644407951371e+00 2.1273944562877418e+01 50 -85 369
304 1 3.9631109779635153e+01 3.0376095356575760e+01 2.5764430138917522e+01 38 48 397
305 1 2.9518428380348489e+01 2.8904978184660159e+01 1.2881454228788019e+01 130 85 6
306 1 4.1738459885944827e+01 1.6663254981262398e+01 3.8947604166629105e+01 -125 -27 94
307 1 1.9104366494556768e+01 2.3729759547052993e+01 4.1850402543023741e+01 -269 2 -163
308 1 2.1012744595490416e+00 2.3779541483455937e+01 2.6842522038163712e+00 125 22 -199
309 1 4.0300651513010592e+01 3.0231865827265054e+01 7.4583495766337187e+00 343 295 -261
310 1 2.5569950140260445e+01 4.3329467409690032e+00 2.8315911573169330e+01 -32 -68 -197
311 1 2.5502739979436040e+01 2.7758374436156668e+01 3.1904395754313171e+01 -143 -206 134
312 1 3.5952339048967481e+01 2.2773316955021620e+01 1.0658250034563219e+01 48 -364 -154
313 1 2.3127642871609531e+01 7.8446158598929356e+00 3.8081171832811876e+01 241 134 169
314 1 5.2159675433035355e+00 1.0749204879915327e+01 1.7505147177199216e+01 -194 49 167
315 1 3.5092981881511605e+01 2.0594282876833724e+01 6.5972093043122246e+00 -96 132 350
316 1 3.4796287592489286e+01 2.9024216354830088e+01 1.7599567323811030e+01 -189 206 6
317 1 2.4501446718964999e+01 1.3945079265283832e+01 3.4159139674329339e+01 -198 15 -84
318 1 1.2589594283300890e+01 3.2628614280448680e+01 9.3075196797834643e+00 -54 209 151
319 1 3.2107180611212584e+01 2.9195726364560560e+01 2.3631921372382980e+01 159 10 -13
320 1 3.8971127535786209e+01 8.1152700224951122e+00 1.2801134326343517e+01 229 -304 -406
321 1 3.9031717318139883e+01 2.6845064633629672e+01 9.5014537331098605e+00 -23 51 246
322 1 4.0966672199496813e+01 3.2698165318183534e+01 3.2506334088116311e+01 -62 240 425
323 1 2.1834150608043359e+01 2.8695464348582185e+01 2.2214135343314179e+01 64 -367 -203
324 1 2.8885350190023335e+01 8.3201315559920044e+00 2.6637029098986218e+01 -77 55 87
325 1 3.3437142570046568e+01 3.3170000145956791e+01 3.8447881974252105e+01 110 116 -160
326 1 3.2088045317453258e+01 2.7517960280248893e+01 1.5350747215234737e+01 -115 228 52
327 1 2.0015131105932642e+01 2.2601046887994510e+01 2.4971862309282862e+01 134 140 90
328 1 2.8413784759631351e+01 4.0772985680905762e+01 3.5759286877189645e+01 54 136 -18
329 1 3.8005368389417015e+01 1.9514919832183089e+01 7.8244909234137543e+00 260 -140 142
330 1 1.1985563269760882e+00 6.7535682871201015e+00 2.5172488378866792e+01 247 81 275
331 1 3.8230986333136187e+01 3.9507041824506850e+01 3.8281576719658091e+01 -168 41 130
332 1 2.1113599193684564e+01 1.6825491085849180e+01 2.6103544662671435e+01 -17 -216 5
333 1 1.2044431547592012e+01 1.7753483466008760e+01 1.1866922782694857e+01 -26 -212 134
334 1 2.7982348082057854e+01 2.7823819043658368e+01 7.7908662010629746e+00 10 14 -57
335 1 2.0247745413627076e+01 4.7922287630341476e+00 1.4941413783203334e+01 235 241 -104
336 1 3.9521211148444159e+01 2.4630543500360943e+01 1.9437377765779512e+01 -130 111 -220
337 1 9.3967005364781109e+00 1.0431636881431636e+01 1.8434455024602414e+01 150 22 11
338 1 3.1996915926443339e+01 4.1244172010412278e+01 2.5953099305492739e+01 -87 130 295
339 1 2.2250061774514851e+00 1.7019544368826427e+01 9.0064872613808440e+00 77 -201 -211
340 1 2.0894059300497918e+01 2.3222480006714772e+01 1.3492992124097530e+01 -200 -96 92
341 1 2.9805483547238872e+01 3.0813880429706717e+01 1.7947525519131279e+01 91 238 -43
342 1 3.7260068276408646e+01 3.7431717214429781e+01 2.5056476102432171e+01 -35 -134 -83